
Host: dhcp-10-29-89-182.dyn.mit.edu

Timers On : Sat Jan 29 20:59:55 2022
Timers Off: Sat Jan 29 20:59:56 2022

Wall Time:        0.85 seconds

                                                       Time (seconds)
Module                                       User      System        Wall        Calls

--------------------------------------------------------------------------------------

**************************************************************************************

Host: dhcp-10-29-89-182.dyn.mit.edu

Timers On : Sat Jan 29 21:00:28 2022
Timers Off: Sat Jan 29 21:00:29 2022

Wall Time:        1.04 seconds

                                                       Time (seconds)
Module                                       User      System        Wall        Calls

--------------------------------------------------------------------------------------

**************************************************************************************

Host: dhcp-10-29-89-182.dyn.mit.edu

Timers On : Sat Jan 29 21:00:58 2022
Timers Off: Sat Jan 29 21:00:59 2022

Wall Time:        0.83 seconds

                                                       Time (seconds)
Module                                       User      System        Wall        Calls

--------------------------------------------------------------------------------------

**************************************************************************************

Host: dhcp-10-29-89-182.dyn.mit.edu

Timers On : Sat Jan 29 21:01:22 2022
Timers Off: Sat Jan 29 21:01:23 2022

Wall Time:        0.85 seconds

                                                       Time (seconds)
Module                                       User      System        Wall        Calls

--------------------------------------------------------------------------------------

**************************************************************************************

Host: dhcp-10-29-89-182.dyn.mit.edu

Timers On : Sat Jan 29 21:03:24 2022
Timers Off: Sat Jan 29 21:03:24 2022

Wall Time:        0.63 seconds

                                                       Time (seconds)
Module                                       User      System        Wall        Calls

--------------------------------------------------------------------------------------

**************************************************************************************

Host: dhcp-10-29-89-182.dyn.mit.edu

Timers On : Sat Jan 29 21:21:43 2022
Timers Off: Sat Jan 29 21:21:44 2022

Wall Time:        0.92 seconds

                                                       Time (seconds)
Module                                       User      System        Wall        Calls

--------------------------------------------------------------------------------------

**************************************************************************************

Host: dhcp-10-29-89-182.dyn.mit.edu

Timers On : Sat Jan 29 21:25:27 2022
Timers Off: Sat Jan 29 21:25:28 2022

Wall Time:        1.30 seconds

                                                       Time (seconds)
Module                                       User      System        Wall        Calls

--------------------------------------------------------------------------------------

**************************************************************************************

Host: dhcp-10-29-89-182.dyn.mit.edu

Timers On : Sat Jan 29 21:26:34 2022
Timers Off: Sat Jan 29 21:26:35 2022

Wall Time:        1.12 seconds

                                                       Time (seconds)
Module                                       User      System        Wall        Calls

--------------------------------------------------------------------------------------

**************************************************************************************

Host: dhcp-10-29-89-182.dyn.mit.edu

Timers On : Sat Jan 29 21:28:34 2022
Timers Off: Sat Jan 29 21:28:35 2022

Wall Time:        1.33 seconds

                                                       Time (seconds)
Module                                       User      System        Wall        Calls

--------------------------------------------------------------------------------------

**************************************************************************************

Host: dhcp-10-29-89-182.dyn.mit.edu

Timers On : Sat Jan 29 21:29:08 2022
Timers Off: Sat Jan 29 21:29:10 2022

Wall Time:        1.16 seconds

                                                       Time (seconds)
Module                                       User      System        Wall        Calls

--------------------------------------------------------------------------------------

**************************************************************************************

Host: dhcp-10-29-89-182.dyn.mit.edu

Timers On : Sat Jan 29 21:30:02 2022
Timers Off: Sat Jan 29 21:30:03 2022

Wall Time:        0.99 seconds

                                                       Time (seconds)
Module                                       User      System        Wall        Calls

--------------------------------------------------------------------------------------

**************************************************************************************
